<?xml version="1.0"?>
<VTKFile type="UnstructuredGrid" version="0.1" byte_order="LittleEndian">
  <UnstructuredGrid>
    <Piece NumberOfPoints="9" NumberOfCells="4">
      <Points>
        <DataArray type="Float64" NumberOfComponents="3" format="ascii">
          -1.00000000e+01 1.00000000e+01 0.00000000e+00 
-1.00000000e+01 9.19999981e+00 0.00000000e+00 
-1.00000000e+01 8.39999962e+00 0.00000000e+00 
-9.19999981e+00 1.00000000e+01 0.00000000e+00 
-9.19999981e+00 9.19999981e+00 0.00000000e+00 
-9.19999981e+00 8.39999962e+00 0.00000000e+00 
-8.39999962e+00 1.00000000e+01 0.00000000e+00 
-8.39999962e+00 9.19999981e+00 0.00000000e+00 
-8.39999962e+00 8.39999962e+00 0.00000000e+00 

        </DataArray>
      </Points>
      <Cells>
        <DataArray type="Int32" Name="connectivity" format="ascii">
0 1 4 3
3 4 7 6
1 2 5 4
4 5 8 7

        </DataArray>
        <DataArray type="Int32" Name="offsets" format="ascii">
4 8 12 16 
        </DataArray>
        <DataArray type="UInt8" Name="types" format="ascii">
9 9 9 9 
        </DataArray>
      </Cells>
      <PointData>
        <DataArray type="Float64" Name="rho">
          1.22563423e+00 1.22581967e+00 1.22592164e+00 1.22584438e+00 1.22586895e+00 1.22595191e+00 1.22590029e+00 1.22597540e+00 1.22601549e+00 
        </DataArray>
        <DataArray type="Float64" Name="rhou">
          8.31901913e+01 8.31587274e+01 8.31239540e+01 8.29486400e+01 8.30796802e+01 8.31147438e+01 8.28859629e+01 8.30087953e+01 8.30765145e+01 
        </DataArray>
        <DataArray type="Float64" Name="rhov">
          1.64755380e-01 -1.29823872e-03 9.70777846e-05 2.81862671e-01 1.68024028e-01 1.33520810e-01 2.86978633e-01 2.74840026e-01 2.49349720e-01 
        </DataArray>
        <DataArray type="Float64" Name="E">
          2.56318772e+05 2.56369168e+05 2.56395962e+05 2.56354297e+05 2.56374553e+05 2.56405055e+05 2.56360194e+05 2.56399066e+05 2.56424305e+05 
        </DataArray>
        <DataArray type="Float64" Name="rhoC">
          1.23078808e+00 1.23242056e+00 1.23348246e+00 1.23035202e+00 1.23209560e+00 1.23369870e+00 1.23004942e+00 1.23200248e+00 1.23378885e+00 
        </DataArray>
        <DataArray type="Float64" Name="p">
          1.01398197e+05 1.01419382e+05 1.01431136e+05 1.01419138e+05 1.01423720e+05 1.01435047e+05 1.01423240e+05 1.01435536e+05 1.01443835e+05 
        </DataArray>
        <DataArray type="Float64" Name="a">
          3.40328793e+02 3.40338598e+02 3.40344161e+02 3.40334757e+02 3.40339036e+02 3.40346523e+02 3.40333879e+02 3.40344082e+02 3.40352440e+02 
        </DataArray>
        <DataArray type="Float64" Name="Mach">
          1.99440375e-01 1.99328728e-01 1.99225687e-01 1.98824562e-01 1.99131461e-01 1.99197529e-01 1.98665937e-01 1.98942072e-01 1.99092732e-01 
        </DataArray>
        <DataArray type="Float64" Name="Sensor">
          -4.72874903e+00 -4.72874903e+00 -4.72874903e+00 -4.72874903e+00 -4.72874903e+00 -4.72874903e+00 -4.72874903e+00 -4.72874903e+00 -4.72874903e+00 
        </DataArray>
      </PointData>
    </Piece>
    <Piece NumberOfPoints="9" NumberOfCells="4">
      <Points>
        <DataArray type="Float64" NumberOfComponents="3" format="ascii">
          -8.39999962e+00 1.00000000e+01 0.00000000e+00 
-8.39999962e+00 9.19999981e+00 0.00000000e+00 
-8.39999962e+00 8.39999962e+00 0.00000000e+00 
-7.59999990e+00 1.00000000e+01 0.00000000e+00 
-7.59999990e+00 9.19999981e+00 0.00000000e+00 
-7.59999990e+00 8.39999962e+00 0.00000000e+00 
-6.80000019e+00 1.00000000e+01 0.00000000e+00 
-6.80000019e+00 9.19999981e+00 0.00000000e+00 
-6.80000019e+00 8.39999962e+00 0.00000000e+00 

        </DataArray>
      </Points>
      <Cells>
        <DataArray type="Int32" Name="connectivity" format="ascii">
0 1 4 3
3 4 7 6
1 2 5 4
4 5 8 7

        </DataArray>
        <DataArray type="Int32" Name="offsets" format="ascii">
4 8 12 16 
        </DataArray>
        <DataArray type="UInt8" Name="types" format="ascii">
9 9 9 9 
        </DataArray>
      </Cells>
      <PointData>
        <DataArray type="Float64" Name="rho">
          1.22592290e+00 1.22594854e+00 1.22599380e+00 1.22595448e+00 1.22590402e+00 1.22587294e+00 1.22591506e+00 1.22585556e+00 1.22579319e+00 
        </DataArray>
        <DataArray type="Float64" Name="rhou">
          8.28782693e+01 8.30162917e+01 8.30837201e+01 8.28889287e+01 8.30281781e+01 8.31002835e+01 8.29683759e+01 8.30819824e+01 8.31398471e+01 
        </DataArray>
        <DataArray type="Float64" Name="rhov">
          2.94884303e-01 2.70132818e-01 2.47682720e-01 3.01279814e-01 3.32376171e-01 3.49359628e-01 2.82626664e-01 3.65747153e-01 4.26299560e-01 
        </DataArray>
        <DataArray type="Float64" Name="E">
          2.56366049e+05 2.56391897e+05 2.56418711e+05 2.56370250e+05 2.56378848e+05 2.56387911e+05 2.56359682e+05 2.56367992e+05 2.56370319e+05 
        </DataArray>
        <DataArray type="Float64" Name="rhoC">
          1.23018125e+00 1.23209233e+00 1.23392927e+00 1.22943007e+00 1.23155721e+00 1.23345240e+00 1.22916059e+00 1.23080760e+00 1.23286580e+00 
        </DataArray>
        <DataArray type="Float64" Name="p">
          1.01425812e+05 1.01432441e+05 1.01441383e+05 1.01427233e+05 1.01426853e+05 1.01428493e+05 1.01420822e+05 1.01421004e+05 1.01420300e+05 
        </DataArray>
        <DataArray type="Float64" Name="a">
          3.40335055e+02 3.40342619e+02 3.40351337e+02 3.40333056e+02 3.40339423e+02 3.40346488e+02 3.40327772e+02 3.40336336e+02 3.40343813e+02 
        </DataArray>
        <DataArray type="Float64" Name="Mach">
          1.98643147e-01 1.98965160e-01 1.99114139e-01 1.98664793e-01 1.99003292e-01 1.99177197e-01 1.98864522e-01 1.99142269e-01 1.99287433e-01 
        </DataArray>
        <DataArray type="Float64" Name="Sensor">
          -4.99485959e+00 -4.99485959e+00 -4.99485959e+00 -4.99485959e+00 -4.99485959e+00 -4.99485959e+00 -4.99485959e+00 -4.99485959e+00 -4.99485959e+00 
        </DataArray>
      </PointData>
    </Piece>
    <Piece NumberOfPoints="9" NumberOfCells="4">
      <Points>
        <DataArray type="Float64" NumberOfComponents="3" format="ascii">
          -6.80000019e+00 1.00000000e+01 0.00000000e+00 
-6.80000019e+00 9.19999981e+00 0.00000000e+00 
-6.80000019e+00 8.39999962e+00 0.00000000e+00 
-6.00000000e+00 1.00000000e+01 0.00000000e+00 
-6.00000000e+00 9.19999981e+00 0.00000000e+00 
-6.00000000e+00 8.39999962e+00 0.00000000e+00 
-5.19999981e+00 1.00000000e+01 0.00000000e+00 
-5.19999981e+00 9.19999981e+00 0.00000000e+00 
-5.19999981e+00 8.39999962e+00 0.00000000e+00 

        </DataArray>
      </Points>
      <Cells>
        <DataArray type="Int32" Name="connectivity" format="ascii">
0 1 4 3
3 4 7 6
1 2 5 4
4 5 8 7

        </DataArray>
        <DataArray type="Int32" Name="offsets" format="ascii">
4 8 12 16 
        </DataArray>
        <DataArray type="UInt8" Name="types" format="ascii">
9 9 9 9 
        </DataArray>
      </Cells>
      <PointData>
        <DataArray type="Float64" Name="rho">
          1.22591766e+00 1.22588311e+00 1.22584546e+00 1.22597942e+00 1.22603020e+00 1.22605984e+00 1.22604715e+00 1.22599514e+00 1.22595756e+00 
        </DataArray>
        <DataArray type="Float64" Name="rhou">
          8.29623446e+01 8.30711150e+01 8.31248805e+01 8.30592724e+01 8.31156149e+01 8.31279818e+01 8.31541121e+01 8.32260137e+01 8.32561628e+01 
        </DataArray>
        <DataArray type="Float64" Name="rhov">
          2.82635281e-01 3.64077757e-01 4.23285880e-01 3.00959273e-01 4.16983726e-01 5.15664835e-01 3.19875866e-01 4.35375871e-01 5.55076979e-01 
        </DataArray>
        <DataArray type="Float64" Name="E">
          2.56359925e+05 2.56374728e+05 2.56383607e+05 2.56380606e+05 2.56419902e+05 2.56447836e+05 2.56403945e+05 2.56416409e+05 2.56427486e+05 
        </DataArray>
        <DataArray type="Float64" Name="rhoC">
          1.22846303e+00 1.23159739e+00 1.23294859e+00 1.22915134e+00 1.22987101e+00 1.23222136e+00 1.22397041e+00 1.23167478e+00 1.22893072e+00 
        </DataArray>
        <DataArray type="Float64" Name="p">
          1.01421084e+05 1.01424018e+05 1.01426069e+05 1.01426786e+05 1.01441010e+05 1.01451860e+05 1.01433610e+05 1.01436582e+05 1.01440140e+05 
        </DataArray>
        <DataArray type="Float64" Name="a">
          3.40327851e+02 3.40337570e+02 3.40346237e+02 3.40328845e+02 3.40345660e+02 3.40359747e+02 3.40330893e+02 3.40343098e+02 3.40354283e+02 
        </DataArray>
        <DataArray type="Float64" Name="Mach">
          1.98849602e-01 1.99110998e-01 1.99241579e-01 1.99071466e-01 1.99189618e-01 1.99207523e-01 1.99286740e-01 1.99461622e-01 1.99535151e-01 
        </DataArray>
        <DataArray type="Float64" Name="Sensor">
          -4.33856214e+00 -4.33856214e+00 -4.33856214e+00 -4.33856214e+00 -4.33856214e+00 -4.33856214e+00 -4.33856214e+00 -4.33856214e+00 -4.33856214e+00 
        </DataArray>
      </PointData>
    </Piece>
    <Piece NumberOfPoints="9" NumberOfCells="4">
      <Points>
        <DataArray type="Float64" NumberOfComponents="3" format="ascii">
          -5.19999981e+00 1.00000000e+01 0.00000000e+00 
-5.19999981e+00 9.19999981e+00 0.00000000e+00 
-5.19999981e+00 8.39999962e+00 0.00000000e+00 
-4.40000010e+00 1.00000000e+01 0.00000000e+00 
-4.40000010e+00 9.19999981e+00 0.00000000e+00 
-4.40000010e+00 8.39999962e+00 0.00000000e+00 
-3.59999990e+00 1.00000000e+01 0.00000000e+00 
-3.59999990e+00 9.19999981e+00 0.00000000e+00 
-3.59999990e+00 8.39999962e+00 0.00000000e+00 

        </DataArray>
      </Points>
      <Cells>
        <DataArray type="Int32" Name="connectivity" format="ascii">
0 1 4 3
3 4 7 6
1 2 5 4
4 5 8 7

        </DataArray>
        <DataArray type="Int32" Name="offsets" format="ascii">
4 8 12 16 
        </DataArray>
        <DataArray type="UInt8" Name="types" format="ascii">
9 9 9 9 
        </DataArray>
      </Cells>
      <PointData>
        <DataArray type="Float64" Name="rho">
          1.22605838e+00 1.22594286e+00 1.22584562e+00 1.22576574e+00 1.22537724e+00 1.22507543e+00 1.22537534e+00 1.22513148e+00 1.22496640e+00 
        </DataArray>
        <DataArray type="Float64" Name="rhou">
          8.31719211e+01 8.32517732e+01 8.32864287e+01 8.32695491e+01 8.34747594e+01 8.36316376e+01 8.34229059e+01 8.36351657e+01 8.38119557e+01 
        </DataArray>
        <DataArray type="Float64" Name="rhov">
          3.24418254e-01 4.40236873e-01 5.73437380e-01 2.17419401e-01 2.81568439e-01 4.14938542e-01 7.82013104e-02 2.26394900e-01 4.22337757e-01 
        </DataArray>
        <DataArray type="Float64" Name="E">
          2.56409028e+05 2.56404640e+05 2.56399357e+05 2.56326192e+05 2.56252886e+05 2.56198303e+05 2.56219161e+05 2.56191919e+05 2.56177888e+05 
        </DataArray>
        <DataArray type="Float64" Name="rhoC">
          1.22546676e+00 1.22976630e+00 1.22813460e+00 1.20883668e+00 1.24012144e+00 1.22359322e+00 1.18888641e+00 1.24489105e+00 1.21286392e+00 
        </DataArray>
        <DataArray type="Float64" Name="p">
          1.01435169e+05 1.01431128e+05 1.01427964e+05 1.01399125e+05 1.01363854e+05 1.01337445e+05 1.01351787e+05 1.01334865e+05 1.01324242e+05 
        </DataArray>
        <DataArray type="Float64" Name="a">
          3.40331949e+02 3.40341207e+02 3.40349400e+02 3.40312093e+02 3.40306834e+02 3.40304412e+02 3.40286841e+02 3.40292291e+02 3.40297378e+02 
        </DataArray>
        <DataArray type="Float64" Name="Mach">
          1.99327067e-01 1.99532917e-01 1.99628840e-01 1.99619465e-01 2.00178364e-01 2.00606685e-01 2.00065040e-01 2.00611555e-01 2.01061576e-01 
        </DataArray>
        <DataArray type="Float64" Name="Sensor">
          -4.02013962e+00 -4.02013962e+00 -4.02013962e+00 -4.02013962e+00 -4.02013962e+00 -4.02013962e+00 -4.02013962e+00 -4.02013962e+00 -4.02013962e+00 
        </DataArray>
      </PointData>
    </Piece>
    <Piece NumberOfPoints="9" NumberOfCells="4">
      <Points>
        <DataArray type="Float64" NumberOfComponents="3" format="ascii">
          -3.59999990e+00 1.00000000e+01 0.00000000e+00 
-3.59999990e+00 9.19999981e+00 0.00000000e+00 
-3.59999990e+00 8.39999962e+00 0.00000000e+00 
-2.79999995e+00 1.00000000e+01 0.00000000e+00 
-2.79999995e+00 9.19999981e+00 0.00000000e+00 
-2.79999995e+00 8.39999962e+00 0.00000000e+00 
-2.00000000e+00 1.00000000e+01 0.00000000e+00 
-2.00000000e+00 9.19999981e+00 0.00000000e+00 
-2.00000000e+00 8.39999962e+00 0.00000000e+00 

        </DataArray>
      </Points>
      <Cells>
        <DataArray type="Int32" Name="connectivity" format="ascii">
0 1 4 3
3 4 7 6
1 2 5 4
4 5 8 7

        </DataArray>
        <DataArray type="Int32" Name="offsets" format="ascii">
4 8 12 16 
        </DataArray>
        <DataArray type="UInt8" Name="types" format="ascii">
9 9 9 9 
        </DataArray>
      </Cells>
      <PointData>
        <DataArray type="Float64" Name="rho">
          1.22536101e+00 1.22524475e+00 1.22520292e+00 1.22564011e+00 1.22623744e+00 1.22679207e+00 1.22639496e+00 1.22721039e+00 1.22792079e+00 
        </DataArray>
        <DataArray type="Float64" Name="rhou">
          8.33969873e+01 8.35871270e+01 8.37477115e+01 8.36195274e+01 8.35514486e+01 8.34935183e+01 8.37831256e+01 8.35895851e+01 8.34370378e+01 
        </DataArray>
        <DataArray type="Float64" Name="rhov">
          7.56263609e-02 2.38702100e-01 4.12064135e-01 1.73473718e-01 5.39408014e-01 8.38940263e-01 4.40076233e-01 8.04270286e-01 1.10851822e+00 
        </DataArray>
        <DataArray type="Float64" Name="E">
          2.56213131e+05 2.56219232e+05 2.56238036e+05 2.56309853e+05 2.56508595e+05 2.56681593e+05 2.56543085e+05 2.56794491e+05 2.57002243e+05 
        </DataArray>
        <DataArray type="Float64" Name="rhoC">
          1.18811817e+00 1.24655431e+00 1.21451437e+00 1.17707084e+00 1.23971155e+00 1.19814329e+00 1.17937595e+00 1.23660221e+00 1.19473996e+00 
        </DataArray>
        <DataArray type="Float64" Name="p">
          1.01350065e+05 1.01347209e+05 1.01350293e+05 1.01382947e+05 1.01464811e+05 1.01536034e+05 1.01472450e+05 1.01578974e+05 1.01666781e+05 
        </DataArray>
        <DataArray type="Float64" Name="a">
          3.40285934e+02 3.40297290e+02 3.40308290e+02 3.40302385e+02 3.40356820e+02 3.40399282e+02 3.40347783e+02 3.40413219e+02 3.40461772e+02 
        </DataArray>
        <DataArray type="Float64" Name="Mach">
          2.00005938e-01 2.00474724e-01 2.00861397e-01 2.00484291e-01 2.00195355e-01 1.99947191e-01 2.00728275e-01 2.00099972e-01 1.99599749e-01 
        </DataArray>
        <DataArray type="Float64" Name="Sensor">
          -4.09459859e+00 -4.09459859e+00 -4.09459859e+00 -4.09459859e+00 -4.09459859e+00 -4.09459859e+00 -4.09459859e+00 -4.09459859e+00 -4.09459859e+00 
        </DataArray>
      </PointData>
    </Piece>
    <Piece NumberOfPoints="9" NumberOfCells="4">
      <Points>
        <DataArray type="Float64" NumberOfComponents="3" format="ascii">
          -1.00000000e+01 8.39999962e+00 0.00000000e+00 
-1.00000000e+01 7.59999990e+00 0.00000000e+00 
-1.00000000e+01 6.80000019e+00 0.00000000e+00 
-9.19999981e+00 8.39999962e+00 0.00000000e+00 
-9.19999981e+00 7.59999990e+00 0.00000000e+00 
-9.19999981e+00 6.80000019e+00 0.00000000e+00 
-8.39999962e+00 8.39999962e+00 0.00000000e+00 
-8.39999962e+00 7.59999990e+00 0.00000000e+00 
-8.39999962e+00 6.80000019e+00 0.00000000e+00 

        </DataArray>
      </Points>
      <Cells>
        <DataArray type="Int32" Name="connectivity" format="ascii">
0 1 4 3
3 4 7 6
1 2 5 4
4 5 8 7

        </DataArray>
        <DataArray type="Int32" Name="offsets" format="ascii">
4 8 12 16 
        </DataArray>
        <DataArray type="UInt8" Name="types" format="ascii">
9 9 9 9 
        </DataArray>
      </Cells>
      <PointData>
        <DataArray type="Float64" Name="rho">
          1.22589659e+00 1.22597021e+00 1.22604060e+00 1.22596638e+00 1.22605477e+00 1.22616259e+00 1.22606844e+00 1.22615075e+00 1.22625392e+00 
        </DataArray>
        <DataArray type="Float64" Name="rhou">
          8.31323353e+01 8.31118322e+01 8.30912110e+01 8.31215543e+01 8.30880566e+01 8.30733381e+01 8.31053984e+01 8.30641925e+01 8.30629469e+01 
        </DataArray>
        <DataArray type="Float64" Name="rhov">
          -6.63895744e-03 -5.05533271e-03 -3.53531489e-03 1.31252417e-01 1.31233957e-01 1.36659543e-01 2.52906909e-01 2.67675300e-01 2.82060417e-01 
        </DataArray>
        <DataArray type="Float64" Name="E">
          2.56389587e+05 2.56409095e+05 2.56427901e+05 2.56402173e+05 2.56429332e+05 2.56457212e+05 2.56427493e+05 2.56455659e+05 2.56481806e+05 
        </DataArray>
        <DataArray type="Float64" Name="rhoC">
          1.23326651e+00 1.23390237e+00 1.23445391e+00 1.23284690e+00 1.23400693e+00 1.23450856e+00 1.23258358e+00 1.23389383e+00 1.23427780e+00 
        </DataArray>
        <DataArray type="Float64" Name="p">
          1.01428336e+05 1.01436763e+05 1.01444909e+05 1.01433724e+05 1.01445577e+05 1.01457227e+05 1.01444376e+05 1.01456834e+05 1.01467420e+05 
        </DataArray>
        <DataArray type="Float64" Name="a">
          3.40342943e+02 3.40346861e+02 3.40350756e+02 3.40342295e+02 3.40349911e+02 3.40354488e+02 3.40346000e+02 3.40355472e+02 3.40358907e+02 
        </DataArray>
        <DataArray type="Float64" Name="Mach">
          1.99250477e-01 1.99187092e-01 1.99123962e-01 1.99213934e-01 1.99114840e-01 1.99059408e-01 1.99157151e-01 1.99039603e-01 1.99017975e-01 
        </DataArray>
        <DataArray type="Float64" Name="Sensor">
          -5.17136261e+00 -5.17136261e+00 -5.17136261e+00 -5.17136261e+00 -5.17136261e+00 -5.17136261e+00 -5.17136261e+00 -5.17136261e+00 -5.17136261e+00 
        </DataArray>
      </PointData>
    </Piece>
    <Piece NumberOfPoints="9" NumberOfCells="4">
      <Points>
        <DataArray type="Float64" NumberOfComponents="3" format="ascii">
          -8.39999962e+00 8.39999962e+00 0.00000000e+00 
-8.39999962e+00 7.59999990e+00 0.00000000e+00 
-8.39999962e+00 6.80000019e+00 0.00000000e+00 
-7.59999990e+00 8.39999962e+00 0.00000000e+00 
-7.59999990e+00 7.59999990e+00 0.00000000e+00 
-7.59999990e+00 6.80000019e+00 0.00000000e+00 
-6.80000019e+00 8.39999962e+00 0.00000000e+00 
-6.80000019e+00 7.59999990e+00 0.00000000e+00 
-6.80000019e+00 6.80000019e+00 0.00000000e+00 

        </DataArray>
      </Points>
      <Cells>
        <DataArray type="Int32" Name="connectivity" format="ascii">
0 1 4 3
3 4 7 6
1 2 5 4
4 5 8 7

        </DataArray>
        <DataArray type="Int32" Name="offsets" format="ascii">
4 8 12 16 
        </DataArray>
        <DataArray type="UInt8" Name="types" format="ascii">
9 9 9 9 
        </DataArray>
      </Cells>
      <PointData>
        <DataArray type="Float64" Name="rho">
          1.22604082e+00 1.22611503e+00 1.22621343e+00 1.22593635e+00 1.22593567e+00 1.22598483e+00 1.22587022e+00 1.22583460e+00 1.22588332e+00 
        </DataArray>
        <DataArray type="Float64" Name="rhou">
          8.31141106e+01 8.30753326e+01 8.30757566e+01 8.31643398e+01 8.31381150e+01 8.31571575e+01 8.32245328e+01 8.32031316e+01 8.32238914e+01 
        </DataArray>
        <DataArray type="Float64" Name="rhov">
          2.48552458e-01 2.63845790e-01 2.81030629e-01 3.49131059e-01 3.82080813e-01 4.11264085e-01 4.25406788e-01 4.92200432e-01 5.57202527e-01 
        </DataArray>
        <DataArray type="Float64" Name="E">
          2.56420275e+05 2.56446435e+05 2.56471427e+05 2.56391778e+05 2.56399195e+05 2.56410515e+05 2.56376686e+05 2.56375419e+05 2.56386605e+05 
        </DataArray>
        <DataArray type="Float64" Name="rhoC">
          1.23268086e+00 1.23396402e+00 1.23427138e+00 1.23222445e+00 1.23355858e+00 1.23393951e+00 1.23153729e+00 1.23279109e+00 1.23320592e+00 
        </DataArray>
        <DataArray type="Float64" Name="p">
          1.01441228e+05 1.01452810e+05 1.01462884e+05 1.01428361e+05 1.01432035e+05 1.01436087e+05 1.01420619e+05 1.01420651e+05 1.01424595e+05 
        </DataArray>
        <DataArray type="Float64" Name="a">
          3.40344552e+02 3.40353680e+02 3.40356920e+02 3.40337466e+02 3.40343723e+02 3.40343698e+02 3.40333656e+02 3.40338654e+02 3.40338509e+02 
        </DataArray>
        <DataArray type="Float64" Name="Mach">
          1.99183307e-01 1.99073107e-01 1.99056402e-01 1.99325694e-01 1.99259636e-01 1.99297632e-01 1.99483818e-01 1.99436268e-01 1.99479154e-01 
        </DataArray>
        <DataArray type="Float64" Name="Sensor">
          -4.59735457e+00 -4.59735457e+00 -4.59735457e+00 -4.59735457e+00 -4.59735457e+00 -4.59735457e+00 -4.59735457e+00 -4.59735457e+00 -4.59735457e+00 
        </DataArray>
      </PointData>
    </Piece>
    <Piece NumberOfPoints="9" NumberOfCells="4">
      <Points>
        <DataArray type="Float64" NumberOfComponents="3" format="ascii">
          -6.80000019e+00 8.39999962e+00 0.00000000e+00 
-6.80000019e+00 7.59999990e+00 0.00000000e+00 
-6.80000019e+00 6.80000019e+00 0.00000000e+00 
-6.00000000e+00 8.39999962e+00 0.00000000e+00 
-6.00000000e+00 7.59999990e+00 0.00000000e+00 
-6.00000000e+00 6.80000019e+00 0.00000000e+00 
-5.19999981e+00 8.39999962e+00 0.00000000e+00 
-5.19999981e+00 7.59999990e+00 0.00000000e+00 
-5.19999981e+00 6.80000019e+00 0.00000000e+00 

        </DataArray>
      </Points>
      <Cells>
        <DataArray type="Int32" Name="connectivity" format="ascii">
0 1 4 3
3 4 7 6
1 2 5 4
4 5 8 7

        </DataArray>
        <DataArray type="Int32" Name="offsets" format="ascii">
4 8 12 16 
        </DataArray>
        <DataArray type="UInt8" Name="types" format="ascii">
9 9 9 9 
        </DataArray>
      </Cells>
      <PointData>
        <DataArray type="Float64" Name="rho">
          1.22592291e+00 1.22590940e+00 1.22597311e+00 1.22614474e+00 1.22621370e+00 1.22635761e+00 1.22604854e+00 1.22610851e+00 1.22623986e+00 
        </DataArray>
        <DataArray type="Float64" Name="rhou">
          8.32101402e+01 8.31838859e+01 8.32008512e+01 8.32199198e+01 8.31722155e+01 8.31678167e+01 8.33483302e+01 8.33103606e+01 8.33064029e+01 
        </DataArray>
        <DataArray type="Float64" Name="rhov">
          4.22130678e-01 4.86660069e-01 5.51620628e-01 5.15364609e-01 6.21152160e-01 7.32200652e-01 5.56580653e-01 6.99066691e-01 8.48178170e-01 
        </DataArray>
        <DataArray type="Float64" Name="E">
          2.56390163e+05 2.56394626e+05 2.56409663e+05 2.56455466e+05 2.56482712e+05 2.56519721e+05 2.56436297e+05 2.56461143e+05 2.56494886e+05 
        </DataArray>
        <DataArray type="Float64" Name="rhoC">
          1.23226471e+00 1.23345043e+00 1.23392223e+00 1.23076531e+00 1.23188536e+00 1.23221619e+00 1.23144406e+00 1.23112745e+00 1.23119695e+00 
        </DataArray>
        <DataArray type="Float64" Name="p">
          1.01426450e+05 1.01428926e+05 1.01434528e+05 1.01452496e+05 1.01464733e+05 1.01479764e+05 1.01441244e+05 1.01452240e+05 1.01465929e+05 
        </DataArray>
        <DataArray type="Float64" Name="a">
          3.40336125e+02 3.40342155e+02 3.40342710e+02 3.40349030e+02 3.40359985e+02 3.40365221e+02 3.40343505e+02 3.40353628e+02 3.40358358e+02 
        </DataArray>
        <DataArray type="Float64" Name="Mach">
          1.99439234e-01 1.99375802e-01 1.99406720e-01 1.99420294e-01 1.99290088e-01 1.99255255e-01 1.99747566e-01 1.99643458e-01 1.99613156e-01 
        </DataArray>
        <DataArray type="Float64" Name="Sensor">
          -4.06157501e+00 -4.06157501e+00 -4.06157501e+00 -4.06157501e+00 -4.06157501e+00 -4.06157501e+00 -4.06157501e+00 -4.06157501e+00 -4.06157501e+00 
        </DataArray>
      </PointData>
    </Piece>
    <Piece NumberOfPoints="9" NumberOfCells="4">
      <Points>
        <DataArray type="Float64" NumberOfComponents="3" format="ascii">
          -5.19999981e+00 8.39999962e+00 0.00000000e+00 
-5.19999981e+00 7.59999990e+00 0.00000000e+00 
-5.19999981e+00 6.80000019e+00 0.00000000e+00 
-4.40000010e+00 8.39999962e+00 0.00000000e+00 
-4.40000010e+00 7.59999990e+00 0.00000000e+00 
-4.40000010e+00 6.80000019e+00 0.00000000e+00 
-3.59999990e+00 8.39999962e+00 0.00000000e+00 
-3.59999990e+00 7.59999990e+00 0.00000000e+00 
-3.59999990e+00 6.80000019e+00 0.00000000e+00 

        </DataArray>
      </Points>
      <Cells>
        <DataArray type="Int32" Name="connectivity" format="ascii">
0 1 4 3
3 4 7 6
1 2 5 4
4 5 8 7

        </DataArray>
        <DataArray type="Int32" Name="offsets" format="ascii">
4 8 12 16 
        </DataArray>
        <DataArray type="UInt8" Name="types" format="ascii">
9 9 9 9 
        </DataArray>
      </Cells>
      <PointData>
        <DataArray type="Float64" Name="rho">
          1.22593384e+00 1.22594959e+00 1.22605142e+00 1.22516229e+00 1.22499203e+00 1.22491715e+00 1.22503569e+00 1.22491783e+00 1.22484032e+00 
        </DataArray>
        <DataArray type="Float64" Name="rhou">
          8.33781494e+01 8.33488529e+01 8.33523280e+01 8.37227593e+01 8.37632779e+01 8.38132297e+01 8.38974028e+01 8.39601342e+01 8.40277038e+01 
        </DataArray>
        <DataArray type="Float64" Name="rhov">
          5.75545009e-01 7.28212690e-01 8.79032588e-01 4.15580169e-01 6.03596309e-01 8.06034052e-01 4.20284215e-01 6.40274775e-01 8.87737331e-01 
        </DataArray>
        <DataArray type="Float64" Name="E">
          2.56407282e+05 2.56420705e+05 2.56446714e+05 2.56206904e+05 2.56169665e+05 2.56148815e+05 2.56184060e+05 2.56161280e+05 2.56141340e+05 
        </DataArray>
        <DataArray type="Float64" Name="rhoC">
          1.22929196e+00 1.22883708e+00 1.22860331e+00 1.23806947e+00 1.23555361e+00 1.23617304e+00 1.24227130e+00 1.23895313e+00 1.24220457e+00 
        </DataArray>
        <DataArray type="Float64" Name="p">
          1.01428721e+05 1.01434872e+05 1.01445236e+05 1.01338477e+05 1.01322284e+05 1.01312461e+05 1.01324436e+05 1.01313454e+05 1.01303490e+05 
        </DataArray>
        <DataArray type="Float64" Name="a">
          3.40338425e+02 3.40346560e+02 3.40349818e+02 3.40294082e+02 3.40290538e+02 3.40284443e+02 3.40288079e+02 3.40286006e+02 3.40280033e+02 
        </DataArray>
        <DataArray type="Float64" Name="Mach">
          1.99840782e-01 1.99766045e-01 1.99759329e-01 2.00817159e-01 2.00947079e-01 2.01086860e-01 2.01260717e-01 2.01435149e-01 2.01618936e-01 
        </DataArray>
        <DataArray type="Float64" Name="Sensor">
          -3.70533285e+00 -3.70533285e+00 -3.70533285e+00 -3.70533285e+00 -3.70533285e+00 -3.70533285e+00 -3.70533285e+00 -3.70533285e+00 -3.70533285e+00 
        </DataArray>
      </PointData>
    </Piece>
    <Piece NumberOfPoints="9" NumberOfCells="4">
      <Points>
        <DataArray type="Float64" NumberOfComponents="3" format="ascii">
          -3.59999990e+00 8.39999962e+00 0.00000000e+00 
-3.59999990e+00 7.59999990e+00 0.00000000e+00 
-3.59999990e+00 6.80000019e+00 0.00000000e+00 
-2.79999995e+00 8.39999962e+00 0.00000000e+00 
-2.79999995e+00 7.59999990e+00 0.00000000e+00 
-2.79999995e+00 6.80000019e+00 0.00000000e+00 
-2.00000000e+00 8.39999962e+00 0.00000000e+00 
-2.00000000e+00 7.59999990e+00 0.00000000e+00 
-2.00000000e+00 6.80000019e+00 0.00000000e+00 

        </DataArray>
      </Points>
      <Cells>
        <DataArray type="Int32" Name="connectivity" format="ascii">
0 1 4 3
3 4 7 6
1 2 5 4
4 5 8 7

        </DataArray>
        <DataArray type="Int32" Name="offsets" format="ascii">
4 8 12 16 
        </DataArray>
        <DataArray type="UInt8" Name="types" format="ascii">
9 9 9 9 
        </DataArray>
      </Cells>
      <PointData>
        <DataArray type="Float64" Name="rho">
          1.22527741e+00 1.22524691e+00 1.22523281e+00 1.22684273e+00 1.22728387e+00 1.22764133e+00 1.22796849e+00 1.22858207e+00 1.22916399e+00 
        </DataArray>
        <DataArray type="Float64" Name="rhou">
          8.38338590e+01 8.38783412e+01 8.39321677e+01 8.35521966e+01 8.35082884e+01 8.34892477e+01 8.34351949e+01 8.33859842e+01 8.33453873e+01 
        </DataArray>
        <DataArray type="Float64" Name="rhov">
          4.08972704e-01 6.08716043e-01 8.46214618e-01 8.35444945e-01 1.06481092e+00 1.33087934e+00 1.10664091e+00 1.34033408e+00 1.63103760e+00 
        </DataArray>
        <DataArray type="Float64" Name="E">
          2.56245622e+05 2.56245238e+05 2.56241748e+05 2.56684196e+05 2.56812897e+05 2.56911334e+05 2.57001990e+05 2.57178506e+05 2.57339730e+05 
        </DataArray>
        <DataArray type="Float64" Name="rhoC">
          1.24465386e+00 1.24194463e+00 1.24580978e+00 1.23575171e+00 1.23109846e+00 1.23566306e+00 1.23078143e+00 1.22417438e+00 1.22688907e+00 
        </DataArray>
        <DataArray type="Float64" Name="p">
          1.01351041e+05 1.01349612e+05 1.01346676e+05 1.01535526e+05 1.01588541e+05 1.01628662e+05 1.01666776e+05 1.01739188e+05 1.01805173e+05 
        </DataArray>
        <DataArray type="Float64" Name="a">
          3.40299200e+02 3.40301050e+02 3.40298089e+02 3.40391405e+02 3.40419061e+02 3.40436701e+02 3.40455157e+02 3.40491309e+02 3.40521060e+02 
        </DataArray>
        <DataArray type="Float64" Name="Mach">
          2.01061214e-01 2.01174416e-01 2.01312270e-01 2.00083897e-01 1.99896817e-01 1.99791779e-01 1.99591297e-01 1.99361170e-01 1.99164894e-01 
        </DataArray>
        <DataArray type="Float64" Name="Sensor">
          -3.79807162e+00 -3.79807162e+00 -3.79807162e+00 -3.79807162e+00 -3.79807162e+00 -3.79807162e+00 -3.79807162e+00 -3.79807162e+00 -3.79807162e+00 
        </DataArray>
      </PointData>
    </Piece>
    <Piece NumberOfPoints="9" NumberOfCells="4">
      <Points>
        <DataArray type="Float64" NumberOfComponents="3" format="ascii">
          -1.00000000e+01 6.80000019e+00 0.00000000e+00 
-1.00000000e+01 6.00000000e+00 0.00000000e+00 
-1.00000000e+01 5.19999981e+00 0.00000000e+00 
-9.19999981e+00 6.80000019e+00 0.00000000e+00 
-9.19999981e+00 6.00000000e+00 0.00000000e+00 
-9.19999981e+00 5.19999981e+00 0.00000000e+00 
-8.39999962e+00 6.80000019e+00 0.00000000e+00 
-8.39999962e+00 6.00000000e+00 0.00000000e+00 
-8.39999962e+00 5.19999981e+00 0.00000000e+00 

        </DataArray>
      </Points>
      <Cells>